
     Program PWSCF v.7.2 starts on 15Jun2023 at 13:44:26 

     This program is part of the open-source Quantum ESPRESSO suite
     for quantum simulation of materials; please cite
         "P. Giannozzi et al., J. Phys.:Condens. Matter 21 395502 (2009);
         "P. Giannozzi et al., J. Phys.:Condens. Matter 29 465901 (2017);
         "P. Giannozzi et al., J. Chem. Phys. 152 154105 (2020);
          URL http://www.quantum-espresso.org", 
     in publications or presentations arising from this work. More details at
     http://www.quantum-espresso.org/quote

     Parallel version (MPI & OpenMP), running on      16 processor cores
     Number of MPI processes:                16
     Threads/MPI process:                     1

     MPI processes distributed on     1 nodes
     173977 MiB available memory on the printing compute node when the environment starts
 
     Reading input from si2.in

     Current dimensions of program PWSCF are:
     Max number of different atomic species (ntypx) = 10
     Max number of k-points (npk) =  40000
     Max angular momentum in pseudopotentials (lmaxx) =  4
     file Si.pz-vbc.UPF: wavefunction(s)  3S 3P renormalized
 
     R & G space division:  proc/nbgrp/npool/nimage =      16
     Subspace diagonalization in iterative solution of the eigenvalue problem:
     a serial algorithm will be used

 
     Parallelization info
     --------------------
     sticks:   dense  smooth     PW     G-vecs:    dense   smooth      PW
     Min          27      27      8                  372      372      66
     Max          28      28      9                  375      375      68
     Sum         433     433    139                 5961     5961    1067
 
     Using Slab Decomposition
 


     bravais-lattice index     =            2
     lattice parameter (alat)  =      10.2600  a.u.
     unit-cell volume          =     270.0114 (a.u.)^3
     number of atoms/cell      =            2
     number of atomic types    =            1
     number of electrons       =         8.00
     number of Kohn-Sham states=            8
     kinetic-energy cutoff     =      30.0000  Ry
     charge density cutoff     =     120.0000  Ry
     scf convergence threshold =      1.0E-06
     mixing beta               =       0.6000
     number of iterations used =            8  plain     mixing
     Exchange-correlation= SLA  PW   PBX  PBC
                           (   1   4   3   4   0   0   0)

     celldm(1)=  10.260000  celldm(2)=   0.000000  celldm(3)=   0.000000
     celldm(4)=   0.000000  celldm(5)=   0.000000  celldm(6)=   0.000000

     crystal axes: (cart. coord. in units of alat)
               a(1) = (  -0.500000   0.000000   0.500000 )  
               a(2) = (   0.000000   0.500000   0.500000 )  
               a(3) = (  -0.500000   0.500000   0.000000 )  

     reciprocal axes: (cart. coord. in units 2 pi/alat)
               b(1) = ( -1.000000 -1.000000  1.000000 )  
               b(2) = (  1.000000  1.000000  1.000000 )  
               b(3) = ( -1.000000  1.000000 -1.000000 )  


     PseudoPot. # 1 for Si read from file:
     ./Si.pz-vbc.UPF
     MD5 check sum: c39c59da582df4a0d9f10159256ea34e
     Pseudo is Projector augmented-wave + core cor, Zval =  4.0
     Generated using &quot;atomic&quot; code by A. Dal Corso  v.6.3
     Shape of augmentation charge: PSQ
     Using radial grid of 1141 points,  6 beta functions with: 
                l(1) =   0
                l(2) =   0
                l(3) =   1
                l(4) =   1
                l(5) =   2
                l(6) =   2
     Q(r) pseudized with 0 coefficients 


     atomic species   valence    mass     pseudopotential
        Si             4.00    28.08600     Si( 1.00)

     48 Sym. Ops., with inversion, found (24 have fractional translation)



   Cartesian axes

     site n.     atom                  positions (alat units)
         1           Si  tau(   1) = (   0.0000000   0.0000000   0.0000000  )
         2           Si  tau(   2) = (   0.2500000   0.2500000   0.2500000  )

     number of k points=    16
                       cart. coord. in units 2pi/alat
        k(    1) = (   0.0000000   0.0000000   0.0000000), wk =   0.0092593
        k(    2) = (  -0.1666667   0.1666667  -0.1666667), wk =   0.0740741
        k(    3) = (  -0.3333333   0.3333333  -0.3333333), wk =   0.0740741
        k(    4) = (   0.5000000  -0.5000000   0.5000000), wk =   0.0370370
        k(    5) = (   0.0000000   0.3333333   0.0000000), wk =   0.0555556
        k(    6) = (  -0.1666667   0.5000000  -0.1666667), wk =   0.2222222
        k(    7) = (   0.6666667  -0.3333333   0.6666667), wk =   0.2222222
        k(    8) = (   0.5000000  -0.1666667   0.5000000), wk =   0.2222222
        k(    9) = (   0.3333333   0.0000000   0.3333333), wk =   0.1111111
        k(   10) = (   0.0000000   0.6666667   0.0000000), wk =   0.0555556
        k(   11) = (   0.8333333  -0.1666667   0.8333333), wk =   0.2222222
        k(   12) = (   0.6666667  -0.0000000   0.6666667), wk =   0.1111111
        k(   13) = (   0.0000000  -1.0000000   0.0000000), wk =   0.0277778
        k(   14) = (   0.6666667  -0.3333333   1.0000000), wk =   0.2222222
        k(   15) = (   0.5000000  -0.1666667   0.8333333), wk =   0.2222222
        k(   16) = (  -0.3333333  -1.0000000   0.0000000), wk =   0.1111111

     Dense  grid:     5961 G-vectors     FFT dimensions: (  32,  32,  32)

     Estimated max dynamical RAM per process >       2.44 MB

     Estimated total dynamical RAM >      39.11 MB

     Check: negative core charge=   -0.000004

     Initial potential from superposition of free atoms

     starting charge       7.9989, renormalised to       8.0000
     Starting wfcs are    8 randomized atomic wfcs
     Checking if some PAW data can be deallocated... 

     total cpu time spent up to now is        0.4 secs

     Self-consistent Calculation

     iteration #  1     ecut=    30.00 Ry     beta= 0.60
     Davidson diagonalization with overlap
     ethr =  1.00E-02,  avg # of iterations =  3.6

     Threshold (ethr) on eigenvalues was too large:
     Diagonalizing with lowered threshold

     Davidson diagonalization with overlap
     ethr =  6.57E-04,  avg # of iterations =  2.1

     total cpu time spent up to now is        0.5 secs

     total energy              =     -93.44969569 Ry
     estimated scf accuracy    <       0.05679925 Ry

     iteration #  2     ecut=    30.00 Ry     beta= 0.60
     Davidson diagonalization with overlap
     ethr =  7.10E-04,  avg # of iterations =  1.1

     total cpu time spent up to now is        0.6 secs

     total energy              =     -93.45097167 Ry
     estimated scf accuracy    <       0.00527875 Ry

     iteration #  3     ecut=    30.00 Ry     beta= 0.60
     Davidson diagonalization with overlap
     ethr =  6.60E-05,  avg # of iterations =  2.9

     total cpu time spent up to now is        0.7 secs

     total energy              =     -93.45124278 Ry
     estimated scf accuracy    <       0.00009289 Ry

     iteration #  4     ecut=    30.00 Ry     beta= 0.60
     Davidson diagonalization with overlap
     ethr =  1.16E-06,  avg # of iterations =  4.6

     total cpu time spent up to now is        0.8 secs

     End of self-consistent calculation

          k = 0.0000 0.0000 0.0000 (   725 PWs)   bands (ev):

    -5.7508   6.2198   6.2198   6.2198   8.7792   8.7792   8.7792   9.5879

          k =-0.1667 0.1667-0.1667 (   748 PWs)   bands (ev):

    -5.3894   3.8356   5.7682   5.7682   8.5695   9.4280   9.4281  11.6767

          k =-0.3333 0.3333-0.3333 (   751 PWs)   bands (ev):

    -4.3731   0.8792   5.2172   5.2172   7.9816   9.7237   9.7238  14.0908

          k = 0.5000-0.5000 0.5000 (   754 PWs)   bands (ev):

    -3.4173  -0.7581   5.0187   5.0187   7.7561   9.5560   9.5561  13.9495

          k = 0.0000 0.3333 0.0000 (   753 PWs)   bands (ev):

    -5.2664   4.1803   5.0238   5.0238   7.9206  10.5208  10.5648  10.5648

          k =-0.1667 0.5000-0.1667 (   750 PWs)   bands (ev):

    -4.4506   1.7789   4.2233   4.4700   8.1817  10.2854  10.7439  11.2951

          k = 0.6667-0.3333 0.6667 (   752 PWs)   bands (ev):

    -3.2580  -0.3930   3.4384   4.4399   8.2585  10.3360  10.8402  12.6423

          k = 0.5000-0.1667 0.5000 (   757 PWs)   bands (ev):

    -3.6434   0.2070   3.1672   4.9199   8.6693  10.3431  10.4471  13.5159

          k = 0.3333 0.0000 0.3333 (   748 PWs)   bands (ev):

    -4.8008   2.4988   3.8024   5.6537   9.2587   9.7755  10.0687  11.8866

          k = 0.0000 0.6667 0.0000 (   749 PWs)   bands (ev):

    -3.8454   1.2049   3.7976   3.7976   6.9423   8.2078  13.4856  13.4856

          k = 0.8333-0.1667 0.8333 (   749 PWs)   bands (ev):

    -2.6805  -0.3511   2.5813   3.6610   7.2786   8.9349  13.6719  13.7039

          k = 0.6667-0.0000 0.6667 (   740 PWs)   bands (ev):

    -2.4840  -0.5566   1.7994   4.1039   7.7830  12.0227  12.6964  13.3003

          k = 0.0000-1.0000 0.0000 (   740 PWs)   bands (ev):

    -1.6035  -1.6035   3.3625   3.3625   6.9249   6.9249  16.3284  16.3284

          k = 0.6667-0.3333 1.0000 (   748 PWs)   bands (ev):

    -3.4598   0.5711   2.6439   3.9204   9.0714   9.9332  10.4546  13.2882

          k = 0.5000-0.1667 0.8333 (   738 PWs)   bands (ev):

    -2.4739  -0.6298   2.2035   3.4529   9.5740   9.7769  12.3223  12.7406

          k =-0.3333-1.0000 0.0000 (   742 PWs)   bands (ev):

    -1.4834  -1.4834   2.5684   2.5684   8.9668   8.9668  12.9853  12.9853

     highest occupied, lowest unoccupied level (ev):     6.2198    6.9249

!    total energy              =     -93.45126737 Ry
     total all-electron energy =     -1160.142997 Ry
     estimated scf accuracy    <       0.00000038 Ry

     The total energy is the sum of the following terms:
     one-electron contribution =       5.74396933 Ry
     hartree contribution      =       1.10389096 Ry
     xc contribution           =     -12.31138536 Ry
     ewald contribution        =     -16.80092961 Ry
     one-center paw contrib.   =     -71.18681269 Ry

     convergence has been achieved in   4 iterations


     Computing stress (Cartesian axis) and pressure

          total   stress  (Ry/bohr**3)                   (kbar)     P=       21.16
   0.00014382  -0.00000000   0.00000000           21.16       -0.00        0.00
  -0.00000000   0.00014382   0.00000000           -0.00       21.16        0.00
   0.00000000   0.00000000   0.00014382            0.00        0.00       21.16


     Writing all to output data dir ./pwscf.save/
 
     init_run     :      0.05s CPU      0.14s WALL (       1 calls)
     electrons    :      0.31s CPU      0.41s WALL (       1 calls)
     stress       :      0.02s CPU      0.03s WALL (       1 calls)

     Called by init_run:
     wfcinit      :      0.01s CPU      0.03s WALL (       1 calls)
     potinit      :      0.03s CPU      0.05s WALL (       1 calls)
     hinit0       :      0.01s CPU      0.04s WALL (       1 calls)

     Called by electrons:
     c_bands      :      0.16s CPU      0.19s WALL (       5 calls)
     sum_band     :      0.03s CPU      0.04s WALL (       5 calls)
     v_of_rho     :      0.00s CPU      0.01s WALL (       5 calls)
     newd         :      0.01s CPU      0.01s WALL (       5 calls)
     PAW_pot      :      0.13s CPU      0.19s WALL (       5 calls)
     mix_rho      :      0.00s CPU      0.01s WALL (       5 calls)

     Called by c_bands:
     init_us_2    :      0.00s CPU      0.00s WALL (     192 calls)
     init_us_2:cp :      0.00s CPU      0.00s WALL (     192 calls)
     cegterg      :      0.15s CPU      0.17s WALL (      80 calls)

     Called by *egterg:
     cdiaghg      :      0.02s CPU      0.03s WALL (     293 calls)
     h_psi        :      0.12s CPU      0.14s WALL (     325 calls)
     s_psi        :      0.00s CPU      0.00s WALL (     325 calls)
     g_psi        :      0.00s CPU      0.00s WALL (     229 calls)

     Called by h_psi:
     h_psi:calbec :      0.01s CPU      0.01s WALL (     325 calls)
     vloc_psi     :      0.11s CPU      0.12s WALL (     325 calls)
     add_vuspsi   :      0.00s CPU      0.00s WALL (     325 calls)

     General routines
     calbec       :      0.01s CPU      0.01s WALL (     421 calls)
     fft          :      0.00s CPU      0.01s WALL (      70 calls)
     ffts         :      0.00s CPU      0.00s WALL (       5 calls)
     fftw         :      0.12s CPU      0.13s WALL (    4336 calls)
 
     Parallel routines
 
     PWSCF        :      0.50s CPU      0.86s WALL

 
   This run was terminated on:  13:44:27  15Jun2023            

=------------------------------------------------------------------------------=
   JOB DONE.
=------------------------------------------------------------------------------=
