
     Program PWSCF v.7.2 starts on 19Jun2023 at 10:28:45 

     This program is part of the open-source Quantum ESPRESSO suite
     for quantum simulation of materials; please cite
         "P. Giannozzi et al., J. Phys.:Condens. Matter 21 395502 (2009);
         "P. Giannozzi et al., J. Phys.:Condens. Matter 29 465901 (2017);
         "P. Giannozzi et al., J. Chem. Phys. 152 154105 (2020);
          URL http://www.quantum-espresso.org", 
     in publications or presentations arising from this work. More details at
     http://www.quantum-espresso.org/quote

     Parallel version (MPI & OpenMP), running on      50 processor cores
     Number of MPI processes:                50
     Threads/MPI process:                     1

     MPI processes distributed on     1 nodes
     205327 MiB available memory on the printing compute node when the environment starts
 
     Reading input from si3.in

     Current dimensions of program PWSCF are:
     Max number of different atomic species (ntypx) = 10
     Max number of k-points (npk) =  40000
     Max angular momentum in pseudopotentials (lmaxx) =  4
     file Si.pz-vbc.UPF: wavefunction(s)  3S 3P renormalized
 
     K-points division:     npool     =       5
     R & G space division:  proc/nbgrp/npool/nimage =      10
     Subspace diagonalization in iterative solution of the eigenvalue problem:
     a serial algorithm will be used

 
     Parallelization info
     --------------------
     sticks:   dense  smooth     PW     G-vecs:    dense   smooth      PW
     Min          23      23      8                  227      227      52
     Max          24      24      9                  228      228      55
     Sum         235     235     85                 2277     2277     531
 
     Using Slab Decomposition
 


     bravais-lattice index     =            2
     lattice parameter (alat)  =      10.2600  a.u.
     unit-cell volume          =     270.0114 (a.u.)^3
     number of atoms/cell      =            2
     number of atomic types    =            1
     number of electrons       =         8.00
     number of Kohn-Sham states=            8
     kinetic-energy cutoff     =      16.0000  Ry
     charge density cutoff     =      64.0000  Ry
     scf convergence threshold =      1.0E-06
     mixing beta               =       0.6000
     number of iterations used =            8  plain     mixing
     Exchange-correlation= SLA  PW   PBX  PBC
                           (   1   4   3   4   0   0   0)

     celldm(1)=  10.260000  celldm(2)=   0.000000  celldm(3)=   0.000000
     celldm(4)=   0.000000  celldm(5)=   0.000000  celldm(6)=   0.000000

     crystal axes: (cart. coord. in units of alat)
               a(1) = (  -0.500000   0.000000   0.500000 )  
               a(2) = (   0.000000   0.500000   0.500000 )  
               a(3) = (  -0.500000   0.500000   0.000000 )  

     reciprocal axes: (cart. coord. in units 2 pi/alat)
               b(1) = ( -1.000000 -1.000000  1.000000 )  
               b(2) = (  1.000000  1.000000  1.000000 )  
               b(3) = ( -1.000000  1.000000 -1.000000 )  


     PseudoPot. # 1 for Si read from file:
     ./Si.pz-vbc.UPF
     MD5 check sum: c39c59da582df4a0d9f10159256ea34e
     Pseudo is Projector augmented-wave + core cor, Zval =  4.0
     Generated using &quot;atomic&quot; code by A. Dal Corso  v.6.3
     Shape of augmentation charge: PSQ
     Using radial grid of 1141 points,  6 beta functions with: 
                l(1) =   0
                l(2) =   0
                l(3) =   1
                l(4) =   1
                l(5) =   2
                l(6) =   2
     Q(r) pseudized with 0 coefficients 


     atomic species   valence    mass     pseudopotential
        Si             4.00    28.08600     Si( 1.00)

     48 Sym. Ops., with inversion, found (24 have fractional translation)



   Cartesian axes

     site n.     atom                  positions (alat units)
         1           Si  tau(   1) = (   0.0000000   0.0000000   0.0000000  )
         2           Si  tau(   2) = (   0.2500000   0.2500000   0.2500000  )

     number of k points=    16
                       cart. coord. in units 2pi/alat
        k(    1) = (   0.0000000   0.0000000   0.0000000), wk =   0.0092593
        k(    2) = (  -0.1666667   0.1666667  -0.1666667), wk =   0.0740741
        k(    3) = (  -0.3333333   0.3333333  -0.3333333), wk =   0.0740741
        k(    4) = (   0.5000000  -0.5000000   0.5000000), wk =   0.0370370
        k(    5) = (   0.0000000   0.3333333   0.0000000), wk =   0.0555556
        k(    6) = (  -0.1666667   0.5000000  -0.1666667), wk =   0.2222222
        k(    7) = (   0.6666667  -0.3333333   0.6666667), wk =   0.2222222
        k(    8) = (   0.5000000  -0.1666667   0.5000000), wk =   0.2222222
        k(    9) = (   0.3333333   0.0000000   0.3333333), wk =   0.1111111
        k(   10) = (   0.0000000   0.6666667   0.0000000), wk =   0.0555556
        k(   11) = (   0.8333333  -0.1666667   0.8333333), wk =   0.2222222
        k(   12) = (   0.6666667  -0.0000000   0.6666667), wk =   0.1111111
        k(   13) = (   0.0000000  -1.0000000   0.0000000), wk =   0.0277778
        k(   14) = (   0.6666667  -0.3333333   1.0000000), wk =   0.2222222
        k(   15) = (   0.5000000  -0.1666667   0.8333333), wk =   0.2222222
        k(   16) = (  -0.3333333  -1.0000000   0.0000000), wk =   0.1111111

     Dense  grid:     2277 G-vectors     FFT dimensions: (  20,  20,  20)

     Estimated max dynamical RAM per process >       0.97 MB

     Estimated total dynamical RAM >      46.12 MB

     Check: negative core charge=   -0.000067

     Initial potential from superposition of free atoms

     starting charge       7.9989, renormalised to       8.0000
     Starting wfcs are    8 randomized atomic wfcs
     Checking if some PAW data can be deallocated... 

     total cpu time spent up to now is        0.6 secs

     Self-consistent Calculation

     iteration #  1     ecut=    16.00 Ry     beta= 0.60
     Davidson diagonalization with overlap
     ethr =  1.00E-02,  avg # of iterations =  3.4

     Threshold (ethr) on eigenvalues was too large:
     Diagonalizing with lowered threshold

     Davidson diagonalization with overlap
     ethr =  6.52E-04,  avg # of iterations =  2.4

     total cpu time spent up to now is        0.7 secs

     total energy              =     -93.44753283 Ry
     estimated scf accuracy    <       0.05641592 Ry

     iteration #  2     ecut=    16.00 Ry     beta= 0.60
     Davidson diagonalization with overlap
     ethr =  7.05E-04,  avg # of iterations =  1.1

     total cpu time spent up to now is        0.8 secs

     total energy              =     -93.44881208 Ry
     estimated scf accuracy    <       0.00527714 Ry

     iteration #  3     ecut=    16.00 Ry     beta= 0.60
     Davidson diagonalization with overlap
     ethr =  6.60E-05,  avg # of iterations =  2.7

     total cpu time spent up to now is        0.8 secs

     total energy              =     -93.44907515 Ry
     estimated scf accuracy    <       0.00009055 Ry

     iteration #  4     ecut=    16.00 Ry     beta= 0.60
     Davidson diagonalization with overlap
     ethr =  1.13E-06,  avg # of iterations =  4.6

     total cpu time spent up to now is        0.9 secs

     End of self-consistent calculation

          k = 0.0000 0.0000 0.0000 (   283 PWs)   bands (ev):

    -5.7400   6.2425   6.2425   6.2425   8.8111   8.8111   8.8111   9.5966

          k =-0.1667 0.1667-0.1667 (   295 PWs)   bands (ev):

    -5.3790   3.8492   5.7849   5.7849   8.5954   9.4602   9.4602  11.6964

          k =-0.3333 0.3333-0.3333 (   287 PWs)   bands (ev):

    -4.3634   0.8895   5.2308   5.2308   8.0139   9.7661   9.7661  14.1243

          k = 0.5000-0.5000 0.5000 (   272 PWs)   bands (ev):

    -3.4076  -0.7486   5.0310   5.0310   7.7922   9.6060   9.6061  13.9947

          k = 0.0000 0.3333 0.0000 (   295 PWs)   bands (ev):

    -5.2563   4.1938   5.0373   5.0373   7.9512  10.5535  10.6036  10.6036

          k =-0.1667 0.5000-0.1667 (   294 PWs)   bands (ev):

    -4.4410   1.7891   4.2366   4.4811   8.2158  10.3221  10.7951  11.3443

          k = 0.6667-0.3333 0.6667 (   293 PWs)   bands (ev):

    -3.2488  -0.3836   3.4502   4.4501   8.2962  10.3772  10.8883  12.6981

          k = 0.5000-0.1667 0.5000 (   295 PWs)   bands (ev):

    -3.6341   0.2165   3.1786   4.9313   8.7034  10.3876  10.4884  13.5613

          k = 0.3333 0.0000 0.3333 (   295 PWs)   bands (ev):

    -4.7908   2.5100   3.8153   5.6687   9.2839   9.8081  10.1126  11.9229

          k = 0.0000 0.6667 0.0000 (   302 PWs)   bands (ev):

    -3.8364   1.2140   3.8067   3.8067   6.9733   8.2500  13.5381  13.5381

          k = 0.8333-0.1667 0.8333 (   290 PWs)   bands (ev):

    -2.6718  -0.3428   2.5923   3.6690   7.3165   8.9782  13.7437  13.7574

          k = 0.6667-0.0000 0.6667 (   284 PWs)   bands (ev):

    -2.4749  -0.5477   1.8109   4.1130   7.8216  12.1033  12.7454  13.3543

          k = 0.0000-1.0000 0.0000 (   302 PWs)   bands (ev):

    -1.5955  -1.5955   3.3694   3.3694   6.9620   6.9620  16.3615  16.3615

          k = 0.6667-0.3333 1.0000 (   288 PWs)   bands (ev):

    -3.4507   0.5800   2.6551   3.9320   9.1106   9.9865  10.4949  13.3528

          k = 0.5000-0.1667 0.8333 (   286 PWs)   bands (ev):

    -2.4650  -0.6211   2.2146   3.4640   9.6209   9.8186  12.3915  12.7862

          k =-0.3333-1.0000 0.0000 (   290 PWs)   bands (ev):

    -1.4751  -1.4751   2.5793   2.5793   9.0082   9.0082  13.0404  13.0404

     highest occupied, lowest unoccupied level (ev):     6.2425    6.9620

!    total energy              =     -93.44909629 Ry
     total all-electron energy =     -1160.140826 Ry
     estimated scf accuracy    <       0.00000043 Ry

     The total energy is the sum of the following terms:
     one-electron contribution =       5.74589902 Ry
     hartree contribution      =       1.10469099 Ry
     xc contribution           =     -12.31488937 Ry
     ewald contribution        =     -16.80092958 Ry
     one-center paw contrib.   =     -71.18386734 Ry

     convergence has been achieved in   4 iterations


     Computing stress (Cartesian axis) and pressure

          total   stress  (Ry/bohr**3)                   (kbar)     P=       25.00
   0.00016997   0.00000000   0.00000000           25.00        0.00        0.00
   0.00000000   0.00016997  -0.00000000            0.00       25.00       -0.00
   0.00000000  -0.00000000   0.00016997            0.00       -0.00       25.00


     Writing all to output data dir ./pwscf.save/
 
     init_run     :      0.05s CPU      0.22s WALL (       1 calls)
     electrons    :      0.17s CPU      0.49s WALL (       1 calls)
     stress       :      0.01s CPU      0.02s WALL (       1 calls)

     Called by init_run:
     wfcinit      :      0.00s CPU      0.04s WALL (       1 calls)
     potinit      :      0.03s CPU      0.07s WALL (       1 calls)
     hinit0       :      0.01s CPU      0.08s WALL (       1 calls)

     Called by electrons:
     c_bands      :      0.04s CPU      0.06s WALL (       5 calls)
     sum_band     :      0.01s CPU      0.02s WALL (       5 calls)
     v_of_rho     :      0.00s CPU      0.01s WALL (       5 calls)
     newd         :      0.00s CPU      0.01s WALL (       5 calls)
     PAW_pot      :      0.14s CPU      0.27s WALL (       5 calls)
     mix_rho      :      0.00s CPU      0.01s WALL (       5 calls)

     Called by c_bands:
     init_us_2    :      0.00s CPU      0.00s WALL (      48 calls)
     init_us_2:cp :      0.00s CPU      0.00s WALL (      48 calls)
     cegterg      :      0.03s CPU      0.04s WALL (      20 calls)

     Called by *egterg:
     cdiaghg      :      0.01s CPU      0.04s WALL (      72 calls)
     h_psi        :      0.02s CPU      0.03s WALL (      80 calls)
     s_psi        :      0.00s CPU      0.00s WALL (      80 calls)
     g_psi        :      0.00s CPU      0.00s WALL (      56 calls)

     Called by h_psi:
     h_psi:calbec :      0.00s CPU      0.01s WALL (      80 calls)
     vloc_psi     :      0.02s CPU      0.02s WALL (      80 calls)
     add_vuspsi   :      0.00s CPU      0.00s WALL (      80 calls)

     General routines
     calbec       :      0.00s CPU      0.01s WALL (     104 calls)
     fft          :      0.00s CPU      0.02s WALL (      70 calls)
     ffts         :      0.00s CPU      0.00s WALL (       5 calls)
     fftw         :      0.02s CPU      0.02s WALL (    1082 calls)
 
     Parallel routines
 
     PWSCF        :      0.36s CPU      1.47s WALL

 
   This run was terminated on:  10:28:47  19Jun2023            

=------------------------------------------------------------------------------=
   JOB DONE.
=------------------------------------------------------------------------------=
