
     Program PWSCF v.7.2 starts on 19Jun2023 at 11: 4:47 

     This program is part of the open-source Quantum ESPRESSO suite
     for quantum simulation of materials; please cite
         "P. Giannozzi et al., J. Phys.:Condens. Matter 21 395502 (2009);
         "P. Giannozzi et al., J. Phys.:Condens. Matter 29 465901 (2017);
         "P. Giannozzi et al., J. Chem. Phys. 152 154105 (2020);
          URL http://www.quantum-espresso.org", 
     in publications or presentations arising from this work. More details at
     http://www.quantum-espresso.org/quote

     Parallel version (MPI & OpenMP), running on      50 processor cores
     Number of MPI processes:                50
     Threads/MPI process:                     1

     MPI processes distributed on     1 nodes
     99892 MiB available memory on the printing compute node when the environment starts
 
     Reading input from si5.in

     Current dimensions of program PWSCF are:
     Max number of different atomic species (ntypx) = 10
     Max number of k-points (npk) =  40000
     Max angular momentum in pseudopotentials (lmaxx) =  4
     file Si.pz-vbc.UPF: wavefunction(s)  3S 3P renormalized
 
     K-points division:     npool     =       5
     R & G space division:  proc/nbgrp/npool/nimage =      10
     Subspace diagonalization in iterative solution of the eigenvalue problem:
     a serial algorithm will be used

 
     Parallelization info
     --------------------
     sticks:   dense  smooth     PW     G-vecs:    dense   smooth      PW
     Min          34      34     12                  426      426      86
     Max          35      35     13                  429      429      88
     Sum         349     349    121                 4279     4279     869
 
     Using Slab Decomposition
 


     bravais-lattice index     =            2
     lattice parameter (alat)  =      10.2600  a.u.
     unit-cell volume          =     270.0114 (a.u.)^3
     number of atoms/cell      =            2
     number of atomic types    =            1
     number of electrons       =         8.00
     number of Kohn-Sham states=            8
     kinetic-energy cutoff     =      24.0000  Ry
     charge density cutoff     =      96.0000  Ry
     scf convergence threshold =      1.0E-06
     mixing beta               =       0.6000
     number of iterations used =            8  plain     mixing
     Exchange-correlation= SLA  PW   PBX  PBC
                           (   1   4   3   4   0   0   0)

     celldm(1)=  10.260000  celldm(2)=   0.000000  celldm(3)=   0.000000
     celldm(4)=   0.000000  celldm(5)=   0.000000  celldm(6)=   0.000000

     crystal axes: (cart. coord. in units of alat)
               a(1) = (  -0.500000   0.000000   0.500000 )  
               a(2) = (   0.000000   0.500000   0.500000 )  
               a(3) = (  -0.500000   0.500000   0.000000 )  

     reciprocal axes: (cart. coord. in units 2 pi/alat)
               b(1) = ( -1.000000 -1.000000  1.000000 )  
               b(2) = (  1.000000  1.000000  1.000000 )  
               b(3) = ( -1.000000  1.000000 -1.000000 )  


     PseudoPot. # 1 for Si read from file:
     ./Si.pz-vbc.UPF
     MD5 check sum: c39c59da582df4a0d9f10159256ea34e
     Pseudo is Projector augmented-wave + core cor, Zval =  4.0
     Generated using &quot;atomic&quot; code by A. Dal Corso  v.6.3
     Shape of augmentation charge: PSQ
     Using radial grid of 1141 points,  6 beta functions with: 
                l(1) =   0
                l(2) =   0
                l(3) =   1
                l(4) =   1
                l(5) =   2
                l(6) =   2
     Q(r) pseudized with 0 coefficients 


     atomic species   valence    mass     pseudopotential
        Si             4.00    28.08600     Si( 1.00)

     48 Sym. Ops., with inversion, found (24 have fractional translation)



   Cartesian axes

     site n.     atom                  positions (alat units)
         1           Si  tau(   1) = (   0.0000000   0.0000000   0.0000000  )
         2           Si  tau(   2) = (   0.2500000   0.2500000   0.2500000  )

     number of k points=    16
                       cart. coord. in units 2pi/alat
        k(    1) = (   0.0000000   0.0000000   0.0000000), wk =   0.0092593
        k(    2) = (  -0.1666667   0.1666667  -0.1666667), wk =   0.0740741
        k(    3) = (  -0.3333333   0.3333333  -0.3333333), wk =   0.0740741
        k(    4) = (   0.5000000  -0.5000000   0.5000000), wk =   0.0370370
        k(    5) = (   0.0000000   0.3333333   0.0000000), wk =   0.0555556
        k(    6) = (  -0.1666667   0.5000000  -0.1666667), wk =   0.2222222
        k(    7) = (   0.6666667  -0.3333333   0.6666667), wk =   0.2222222
        k(    8) = (   0.5000000  -0.1666667   0.5000000), wk =   0.2222222
        k(    9) = (   0.3333333   0.0000000   0.3333333), wk =   0.1111111
        k(   10) = (   0.0000000   0.6666667   0.0000000), wk =   0.0555556
        k(   11) = (   0.8333333  -0.1666667   0.8333333), wk =   0.2222222
        k(   12) = (   0.6666667  -0.0000000   0.6666667), wk =   0.1111111
        k(   13) = (   0.0000000  -1.0000000   0.0000000), wk =   0.0277778
        k(   14) = (   0.6666667  -0.3333333   1.0000000), wk =   0.2222222
        k(   15) = (   0.5000000  -0.1666667   0.8333333), wk =   0.2222222
        k(   16) = (  -0.3333333  -1.0000000   0.0000000), wk =   0.1111111

     Dense  grid:     4279 G-vectors     FFT dimensions: (  24,  24,  24)

     Estimated max dynamical RAM per process >       1.41 MB

     Estimated total dynamical RAM >      66.26 MB

     Check: negative core charge=   -0.000015

     Initial potential from superposition of free atoms

     starting charge       7.9989, renormalised to       8.0000
     Starting wfcs are    8 randomized atomic wfcs
     Checking if some PAW data can be deallocated... 

     total cpu time spent up to now is        0.5 secs

     Self-consistent Calculation

     iteration #  1     ecut=    24.00 Ry     beta= 0.60
     Davidson diagonalization with overlap
     ethr =  1.00E-02,  avg # of iterations =  3.6

     Threshold (ethr) on eigenvalues was too large:
     Diagonalizing with lowered threshold

     Davidson diagonalization with overlap
     ethr =  6.57E-04,  avg # of iterations =  2.4

     total cpu time spent up to now is        0.6 secs

     total energy              =     -93.44917461 Ry
     estimated scf accuracy    <       0.05682071 Ry

     iteration #  2     ecut=    24.00 Ry     beta= 0.60
     Davidson diagonalization with overlap
     ethr =  7.10E-04,  avg # of iterations =  1.1

     total cpu time spent up to now is        0.7 secs

     total energy              =     -93.45047115 Ry
     estimated scf accuracy    <       0.00526975 Ry

     iteration #  3     ecut=    24.00 Ry     beta= 0.60
     Davidson diagonalization with overlap
     ethr =  6.59E-05,  avg # of iterations =  2.8

     total cpu time spent up to now is        0.8 secs

     total energy              =     -93.45074581 Ry
     estimated scf accuracy    <       0.00009309 Ry

     iteration #  4     ecut=    24.00 Ry     beta= 0.60
     Davidson diagonalization with overlap
     ethr =  1.16E-06,  avg # of iterations =  5.0

     total cpu time spent up to now is        0.8 secs

     End of self-consistent calculation

          k = 0.0000 0.0000 0.0000 (   531 PWs)   bands (ev):

    -5.7495   6.2217   6.2217   6.2217   8.7828   8.7828   8.7828   9.5900

          k =-0.1667 0.1667-0.1667 (   540 PWs)   bands (ev):

    -5.3882   3.8376   5.7701   5.7701   8.5725   9.4319   9.4319  11.6789

          k =-0.3333 0.3333-0.3333 (   528 PWs)   bands (ev):

    -4.3714   0.8813   5.2191   5.2191   7.9855   9.7285   9.7285  14.0948

          k = 0.5000-0.5000 0.5000 (   544 PWs)   bands (ev):

    -3.4155  -0.7564   5.0203   5.0203   7.7593   9.5599   9.5599  13.9538

          k = 0.0000 0.3333 0.0000 (   540 PWs)   bands (ev):

    -5.2652   4.1822   5.0259   5.0259   7.9244  10.5244  10.5686  10.5686

          k =-0.1667 0.5000-0.1667 (   537 PWs)   bands (ev):

    -4.4491   1.7808   4.2253   4.4719   8.1856  10.2892  10.7487  11.3001

          k = 0.6667-0.3333 0.6667 (   540 PWs)   bands (ev):

    -3.2563  -0.3912   3.4404   4.4416   8.2625  10.3402  10.8457  12.6478

          k = 0.5000-0.1667 0.5000 (   541 PWs)   bands (ev):

    -3.6417   0.2089   3.1691   4.9216   8.6732  10.3474  10.4520  13.5204

          k = 0.3333 0.0000 0.3333 (   537 PWs)   bands (ev):

    -4.7994   2.5008   3.8044   5.6555   9.2623   9.7792  10.0728  11.8910

          k = 0.0000 0.6667 0.0000 (   540 PWs)   bands (ev):

    -3.8437   1.2067   3.7993   3.7993   6.9461   8.2122  13.4908  13.4909

          k = 0.8333-0.1667 0.8333 (   528 PWs)   bands (ev):

    -2.6787  -0.3492   2.5833   3.6626   7.2828   8.9392  13.6785  13.7094

          k = 0.6667-0.0000 0.6667 (   528 PWs)   bands (ev):

    -2.4821  -0.5547   1.8014   4.1057   7.7875  12.0291  12.7018  13.3053

          k = 0.0000-1.0000 0.0000 (   524 PWs)   bands (ev):

    -1.6016  -1.6016   3.3640   3.3640   6.9293   6.9293  16.3340  16.3341

          k = 0.6667-0.3333 1.0000 (   535 PWs)   bands (ev):

    -3.4582   0.5730   2.6459   3.9223   9.0754   9.9377  10.4587  13.2941

          k = 0.5000-0.1667 0.8333 (   534 PWs)   bands (ev):

    -2.4721  -0.6279   2.2055   3.4548   9.5787   9.7812  12.3279  12.7450

          k =-0.3333-1.0000 0.0000 (   530 PWs)   bands (ev):

    -1.4815  -1.4815   2.5703   2.5703   8.9710   8.9710  12.9908  12.9908

     highest occupied, lowest unoccupied level (ev):     6.2217    6.9293

!    total energy              =     -93.45077045 Ry
     total all-electron energy =     -1160.142500 Ry
     estimated scf accuracy    <       0.00000039 Ry

     The total energy is the sum of the following terms:
     one-electron contribution =       5.74417834 Ry
     hartree contribution      =       1.10388875 Ry
     xc contribution           =     -12.31166103 Ry
     ewald contribution        =     -16.80092958 Ry
     one-center paw contrib.   =     -71.18624693 Ry

     convergence has been achieved in   4 iterations


     Computing stress (Cartesian axis) and pressure

          total   stress  (Ry/bohr**3)                   (kbar)     P=       19.94
   0.00013554  -0.00000000   0.00000000           19.94       -0.00        0.00
  -0.00000000   0.00013554   0.00000000           -0.00       19.94        0.00
  -0.00000000   0.00000000   0.00013554           -0.00        0.00       19.94


     Writing all to output data dir ./pwscf.save/
 
     init_run     :      0.07s CPU      0.19s WALL (       1 calls)
     electrons    :      0.23s CPU      0.64s WALL (       1 calls)
     stress       :      0.01s CPU      0.02s WALL (       1 calls)

     Called by init_run:
     wfcinit      :      0.00s CPU      0.02s WALL (       1 calls)
     potinit      :      0.04s CPU      0.08s WALL (       1 calls)
     hinit0       :      0.02s CPU      0.06s WALL (       1 calls)

     Called by electrons:
     c_bands      :      0.05s CPU      0.06s WALL (       5 calls)
     sum_band     :      0.02s CPU      0.02s WALL (       5 calls)
     v_of_rho     :      0.00s CPU      0.01s WALL (       5 calls)
     newd         :      0.00s CPU      0.01s WALL (       5 calls)
     PAW_pot      :      0.20s CPU      0.29s WALL (       5 calls)
     mix_rho      :      0.00s CPU      0.00s WALL (       5 calls)

     Called by c_bands:
     init_us_2    :      0.00s CPU      0.00s WALL (      48 calls)
     init_us_2:cp :      0.00s CPU      0.00s WALL (      48 calls)
     cegterg      :      0.04s CPU      0.05s WALL (      20 calls)

     Called by *egterg:
     cdiaghg      :      0.01s CPU      0.02s WALL (      75 calls)
     h_psi        :      0.03s CPU      0.04s WALL (      83 calls)
     s_psi        :      0.00s CPU      0.00s WALL (      83 calls)
     g_psi        :      0.00s CPU      0.00s WALL (      59 calls)

     Called by h_psi:
     h_psi:calbec :      0.00s CPU      0.00s WALL (      83 calls)
     vloc_psi     :      0.02s CPU      0.03s WALL (      83 calls)
     add_vuspsi   :      0.00s CPU      0.00s WALL (      83 calls)

     General routines
     calbec       :      0.00s CPU      0.00s WALL (     107 calls)
     fft          :      0.00s CPU      0.00s WALL (      70 calls)
     ffts         :      0.00s CPU      0.00s WALL (       5 calls)
     fftw         :      0.03s CPU      0.03s WALL (    1096 calls)
 
     Parallel routines
 
     PWSCF        :      0.43s CPU      1.53s WALL

 
   This run was terminated on:  11: 4:48  19Jun2023            

=------------------------------------------------------------------------------=
   JOB DONE.
=------------------------------------------------------------------------------=
