
     Program PWSCF v.7.2 starts on 19Jun2023 at 11: 8:45 

     This program is part of the open-source Quantum ESPRESSO suite
     for quantum simulation of materials; please cite
         "P. Giannozzi et al., J. Phys.:Condens. Matter 21 395502 (2009);
         "P. Giannozzi et al., J. Phys.:Condens. Matter 29 465901 (2017);
         "P. Giannozzi et al., J. Chem. Phys. 152 154105 (2020);
          URL http://www.quantum-espresso.org", 
     in publications or presentations arising from this work. More details at
     http://www.quantum-espresso.org/quote

     Parallel version (MPI & OpenMP), running on      50 processor cores
     Number of MPI processes:                50
     Threads/MPI process:                     1

     MPI processes distributed on     1 nodes
     99253 MiB available memory on the printing compute node when the environment starts
 
     Reading input from si6.in

     Current dimensions of program PWSCF are:
     Max number of different atomic species (ntypx) = 10
     Max number of k-points (npk) =  40000
     Max angular momentum in pseudopotentials (lmaxx) =  4
     file Si.pz-vbc.UPF: wavefunction(s)  3S 3P renormalized
 
     K-points division:     npool     =       5
     R & G space division:  proc/nbgrp/npool/nimage =      10
     Subspace diagonalization in iterative solution of the eigenvalue problem:
     a serial algorithm will be used

 
     Parallelization info
     --------------------
     sticks:   dense  smooth     PW     G-vecs:    dense   smooth      PW
     Min          40      40     12                  532      532      96
     Max          42      42     13                  533      533      99
     Sum         409     409    127                 5329     5329     965
 
     Using Slab Decomposition
 


     bravais-lattice index     =            2
     lattice parameter (alat)  =      10.2600  a.u.
     unit-cell volume          =     270.0114 (a.u.)^3
     number of atoms/cell      =            2
     number of atomic types    =            1
     number of electrons       =         8.00
     number of Kohn-Sham states=            8
     kinetic-energy cutoff     =      28.0000  Ry
     charge density cutoff     =     112.0000  Ry
     scf convergence threshold =      1.0E-06
     mixing beta               =       0.6000
     number of iterations used =            8  plain     mixing
     Exchange-correlation= SLA  PW   PBX  PBC
                           (   1   4   3   4   0   0   0)

     celldm(1)=  10.260000  celldm(2)=   0.000000  celldm(3)=   0.000000
     celldm(4)=   0.000000  celldm(5)=   0.000000  celldm(6)=   0.000000

     crystal axes: (cart. coord. in units of alat)
               a(1) = (  -0.500000   0.000000   0.500000 )  
               a(2) = (   0.000000   0.500000   0.500000 )  
               a(3) = (  -0.500000   0.500000   0.000000 )  

     reciprocal axes: (cart. coord. in units 2 pi/alat)
               b(1) = ( -1.000000 -1.000000  1.000000 )  
               b(2) = (  1.000000  1.000000  1.000000 )  
               b(3) = ( -1.000000  1.000000 -1.000000 )  


     PseudoPot. # 1 for Si read from file:
     ./Si.pz-vbc.UPF
     MD5 check sum: c39c59da582df4a0d9f10159256ea34e
     Pseudo is Projector augmented-wave + core cor, Zval =  4.0
     Generated using &quot;atomic&quot; code by A. Dal Corso  v.6.3
     Shape of augmentation charge: PSQ
     Using radial grid of 1141 points,  6 beta functions with: 
                l(1) =   0
                l(2) =   0
                l(3) =   1
                l(4) =   1
                l(5) =   2
                l(6) =   2
     Q(r) pseudized with 0 coefficients 


     atomic species   valence    mass     pseudopotential
        Si             4.00    28.08600     Si( 1.00)

     48 Sym. Ops., with inversion, found (24 have fractional translation)



   Cartesian axes

     site n.     atom                  positions (alat units)
         1           Si  tau(   1) = (   0.0000000   0.0000000   0.0000000  )
         2           Si  tau(   2) = (   0.2500000   0.2500000   0.2500000  )

     number of k points=    16
                       cart. coord. in units 2pi/alat
        k(    1) = (   0.0000000   0.0000000   0.0000000), wk =   0.0092593
        k(    2) = (  -0.1666667   0.1666667  -0.1666667), wk =   0.0740741
        k(    3) = (  -0.3333333   0.3333333  -0.3333333), wk =   0.0740741
        k(    4) = (   0.5000000  -0.5000000   0.5000000), wk =   0.0370370
        k(    5) = (   0.0000000   0.3333333   0.0000000), wk =   0.0555556
        k(    6) = (  -0.1666667   0.5000000  -0.1666667), wk =   0.2222222
        k(    7) = (   0.6666667  -0.3333333   0.6666667), wk =   0.2222222
        k(    8) = (   0.5000000  -0.1666667   0.5000000), wk =   0.2222222
        k(    9) = (   0.3333333   0.0000000   0.3333333), wk =   0.1111111
        k(   10) = (   0.0000000   0.6666667   0.0000000), wk =   0.0555556
        k(   11) = (   0.8333333  -0.1666667   0.8333333), wk =   0.2222222
        k(   12) = (   0.6666667  -0.0000000   0.6666667), wk =   0.1111111
        k(   13) = (   0.0000000  -1.0000000   0.0000000), wk =   0.0277778
        k(   14) = (   0.6666667  -0.3333333   1.0000000), wk =   0.2222222
        k(   15) = (   0.5000000  -0.1666667   0.8333333), wk =   0.2222222
        k(   16) = (  -0.3333333  -1.0000000   0.0000000), wk =   0.1111111

     Dense  grid:     5329 G-vectors     FFT dimensions: (  32,  32,  32)

     Estimated max dynamical RAM per process >       1.76 MB

     Estimated total dynamical RAM >      82.78 MB

     Check: negative core charge=   -0.000008

     Initial potential from superposition of free atoms

     starting charge       7.9989, renormalised to       8.0000
     Starting wfcs are    8 randomized atomic wfcs
     Checking if some PAW data can be deallocated... 

     total cpu time spent up to now is        0.4 secs

     Self-consistent Calculation

     iteration #  1     ecut=    28.00 Ry     beta= 0.60
     Davidson diagonalization with overlap
     ethr =  1.00E-02,  avg # of iterations =  3.5

     Threshold (ethr) on eigenvalues was too large:
     Diagonalizing with lowered threshold

     Davidson diagonalization with overlap
     ethr =  6.56E-04,  avg # of iterations =  2.5

     total cpu time spent up to now is        0.6 secs

     total energy              =     -93.44964832 Ry
     estimated scf accuracy    <       0.05679924 Ry

     iteration #  2     ecut=    28.00 Ry     beta= 0.60
     Davidson diagonalization with overlap
     ethr =  7.10E-04,  avg # of iterations =  1.1

     total cpu time spent up to now is        0.6 secs

     total energy              =     -93.45093330 Ry
     estimated scf accuracy    <       0.00527326 Ry

     iteration #  3     ecut=    28.00 Ry     beta= 0.60
     Davidson diagonalization with overlap
     ethr =  6.59E-05,  avg # of iterations =  2.6

     total cpu time spent up to now is        0.7 secs

     total energy              =     -93.45120071 Ry
     estimated scf accuracy    <       0.00009190 Ry

     iteration #  4     ecut=    28.00 Ry     beta= 0.60
     Davidson diagonalization with overlap
     ethr =  1.15E-06,  avg # of iterations =  5.0

     total cpu time spent up to now is        0.8 secs

     End of self-consistent calculation

          k = 0.0000 0.0000 0.0000 (   645 PWs)   bands (ev):

    -5.7502   6.2209   6.2209   6.2209   8.7805   8.7805   8.7805   9.5888

          k =-0.1667 0.1667-0.1667 (   661 PWs)   bands (ev):

    -5.3888   3.8365   5.7691   5.7691   8.5706   9.4291   9.4291  11.6776

          k =-0.3333 0.3333-0.3333 (   658 PWs)   bands (ev):

    -4.3725   0.8800   5.2182   5.2182   7.9829   9.7251   9.7251  14.0924

          k = 0.5000-0.5000 0.5000 (   652 PWs)   bands (ev):

    -3.4168  -0.7574   5.0198   5.0198   7.7574   9.5580   9.5580  13.9513

          k = 0.0000 0.3333 0.0000 (   673 PWs)   bands (ev):

    -5.2658   4.1812   5.0247   5.0247   7.9219  10.5221  10.5658  10.5658

          k =-0.1667 0.5000-0.1667 (   675 PWs)   bands (ev):

    -4.4500   1.7798   4.2243   4.4708   8.1829  10.2863  10.7454  11.2960

          k = 0.6667-0.3333 0.6667 (   678 PWs)   bands (ev):

    -3.2574  -0.3923   3.4393   4.4407   8.2599  10.3373  10.8414  12.6437

          k = 0.5000-0.1667 0.5000 (   677 PWs)   bands (ev):

    -3.6428   0.2077   3.1680   4.9207   8.6705  10.3444  10.4483  13.5171

          k = 0.3333 0.0000 0.3333 (   662 PWs)   bands (ev):

    -4.8001   2.4998   3.8033   5.6547   9.2597   9.7764  10.0701  11.8878

          k = 0.0000 0.6667 0.0000 (   680 PWs)   bands (ev):

    -3.8447   1.2056   3.7983   3.7983   6.9437   8.2092  13.4866  13.4867

          k = 0.8333-0.1667 0.8333 (   674 PWs)   bands (ev):

    -2.6799  -0.3504   2.5821   3.6617   7.2800   8.9363  13.6730  13.7051

          k = 0.6667-0.0000 0.6667 (   680 PWs)   bands (ev):

    -2.4834  -0.5559   1.8001   4.1048   7.7845  12.0242  12.6972  13.3014

          k = 0.0000-1.0000 0.0000 (   692 PWs)   bands (ev):

    -1.6029  -1.6029   3.3631   3.3631   6.9262   6.9262  16.3293  16.3293

          k = 0.6667-0.3333 1.0000 (   670 PWs)   bands (ev):

    -3.4592   0.5719   2.6448   3.9213   9.0727   9.9347  10.4556  13.2894

          k = 0.5000-0.1667 0.8333 (   682 PWs)   bands (ev):

    -2.4733  -0.6291   2.2043   3.4537   9.5754   9.7779  12.3233  12.7414

          k =-0.3333-1.0000 0.0000 (   682 PWs)   bands (ev):

    -1.4827  -1.4827   2.5691   2.5691   8.9682   8.9682  12.9863  12.9863

     highest occupied, lowest unoccupied level (ev):     6.2209    6.9262

!    total energy              =     -93.45122453 Ry
     total all-electron energy =     -1160.142954 Ry
     estimated scf accuracy    <       0.00000051 Ry

     The total energy is the sum of the following terms:
     one-electron contribution =       5.74398630 Ry
     hartree contribution      =       1.10381402 Ry
     xc contribution           =     -12.31142308 Ry
     ewald contribution        =     -16.80092962 Ry
     one-center paw contrib.   =     -71.18667215 Ry

     convergence has been achieved in   4 iterations


     Computing stress (Cartesian axis) and pressure

          total   stress  (Ry/bohr**3)                   (kbar)     P=       20.96
   0.00014249   0.00000000   0.00000000           20.96        0.00        0.00
  -0.00000000   0.00014249  -0.00000000           -0.00       20.96       -0.00
   0.00000000   0.00000000   0.00014249            0.00        0.00       20.96


     Writing all to output data dir ./pwscf.save/
 
     init_run     :      0.07s CPU      0.18s WALL (       1 calls)
     electrons    :      0.29s CPU      0.49s WALL (       1 calls)
     stress       :      0.01s CPU      0.02s WALL (       1 calls)

     Called by init_run:
     wfcinit      :      0.00s CPU      0.03s WALL (       1 calls)
     potinit      :      0.05s CPU      0.07s WALL (       1 calls)
     hinit0       :      0.02s CPU      0.06s WALL (       1 calls)

     Called by electrons:
     c_bands      :      0.07s CPU      0.09s WALL (       5 calls)
     sum_band     :      0.02s CPU      0.03s WALL (       5 calls)
     v_of_rho     :      0.01s CPU      0.01s WALL (       5 calls)
     newd         :      0.00s CPU      0.01s WALL (       5 calls)
     PAW_pot      :      0.22s CPU      0.30s WALL (       5 calls)
     mix_rho      :      0.00s CPU      0.00s WALL (       5 calls)

     Called by c_bands:
     init_us_2    :      0.00s CPU      0.00s WALL (      48 calls)
     init_us_2:cp :      0.00s CPU      0.00s WALL (      48 calls)
     cegterg      :      0.06s CPU      0.07s WALL (      20 calls)

     Called by *egterg:
     cdiaghg      :      0.01s CPU      0.03s WALL (      73 calls)
     h_psi        :      0.05s CPU      0.06s WALL (      81 calls)
     s_psi        :      0.00s CPU      0.00s WALL (      81 calls)
     g_psi        :      0.00s CPU      0.00s WALL (      57 calls)

     Called by h_psi:
     h_psi:calbec :      0.00s CPU      0.00s WALL (      81 calls)
     vloc_psi     :      0.05s CPU      0.05s WALL (      81 calls)
     add_vuspsi   :      0.00s CPU      0.00s WALL (      81 calls)

     General routines
     calbec       :      0.00s CPU      0.00s WALL (     105 calls)
     fft          :      0.01s CPU      0.01s WALL (      70 calls)
     ffts         :      0.00s CPU      0.00s WALL (       5 calls)
     fftw         :      0.05s CPU      0.05s WALL (    1088 calls)
 
     Parallel routines
 
     PWSCF        :      0.49s CPU      1.18s WALL

 
   This run was terminated on:  11: 8:46  19Jun2023            

=------------------------------------------------------------------------------=
   JOB DONE.
=------------------------------------------------------------------------------=
