
     Program PWSCF v.7.2 starts on 19Jun2023 at 11:13:13 

     This program is part of the open-source Quantum ESPRESSO suite
     for quantum simulation of materials; please cite
         "P. Giannozzi et al., J. Phys.:Condens. Matter 21 395502 (2009);
         "P. Giannozzi et al., J. Phys.:Condens. Matter 29 465901 (2017);
         "P. Giannozzi et al., J. Chem. Phys. 152 154105 (2020);
          URL http://www.quantum-espresso.org", 
     in publications or presentations arising from this work. More details at
     http://www.quantum-espresso.org/quote

     Parallel version (MPI & OpenMP), running on      50 processor cores
     Number of MPI processes:                50
     Threads/MPI process:                     1

     MPI processes distributed on     1 nodes
     122625 MiB available memory on the printing compute node when the environment starts
 
     Reading input from si7.in

     Current dimensions of program PWSCF are:
     Max number of different atomic species (ntypx) = 10
     Max number of k-points (npk) =  40000
     Max angular momentum in pseudopotentials (lmaxx) =  4
     file Si.pz-vbc.UPF: wavefunction(s)  3S 3P renormalized
 
     K-points division:     npool     =       5
     R & G space division:  proc/nbgrp/npool/nimage =      10
     Subspace diagonalization in iterative solution of the eigenvalue problem:
     a serial algorithm will be used

 
     Parallelization info
     --------------------
     sticks:   dense  smooth     PW     G-vecs:    dense   smooth      PW
     Min          46      46     15                  660      660     124
     Max          47      47     16                  662      662     127
     Sum         463     463    151                 6615     6615    1243
 
     Using Slab Decomposition
 


     bravais-lattice index     =            2
     lattice parameter (alat)  =      10.2600  a.u.
     unit-cell volume          =     270.0114 (a.u.)^3
     number of atoms/cell      =            2
     number of atomic types    =            1
     number of electrons       =         8.00
     number of Kohn-Sham states=            8
     kinetic-energy cutoff     =      32.0000  Ry
     charge density cutoff     =     128.0000  Ry
     scf convergence threshold =      1.0E-06
     mixing beta               =       0.6000
     number of iterations used =            8  plain     mixing
     Exchange-correlation= SLA  PW   PBX  PBC
                           (   1   4   3   4   0   0   0)

     celldm(1)=  10.260000  celldm(2)=   0.000000  celldm(3)=   0.000000
     celldm(4)=   0.000000  celldm(5)=   0.000000  celldm(6)=   0.000000

     crystal axes: (cart. coord. in units of alat)
               a(1) = (  -0.500000   0.000000   0.500000 )  
               a(2) = (   0.000000   0.500000   0.500000 )  
               a(3) = (  -0.500000   0.500000   0.000000 )  

     reciprocal axes: (cart. coord. in units 2 pi/alat)
               b(1) = ( -1.000000 -1.000000  1.000000 )  
               b(2) = (  1.000000  1.000000  1.000000 )  
               b(3) = ( -1.000000  1.000000 -1.000000 )  


     PseudoPot. # 1 for Si read from file:
     ./Si.pz-vbc.UPF
     MD5 check sum: c39c59da582df4a0d9f10159256ea34e
     Pseudo is Projector augmented-wave + core cor, Zval =  4.0
     Generated using &quot;atomic&quot; code by A. Dal Corso  v.6.3
     Shape of augmentation charge: PSQ
     Using radial grid of 1141 points,  6 beta functions with: 
                l(1) =   0
                l(2) =   0
                l(3) =   1
                l(4) =   1
                l(5) =   2
                l(6) =   2
     Q(r) pseudized with 0 coefficients 


     atomic species   valence    mass     pseudopotential
        Si             4.00    28.08600     Si( 1.00)

     48 Sym. Ops., with inversion, found (24 have fractional translation)



   Cartesian axes

     site n.     atom                  positions (alat units)
         1           Si  tau(   1) = (   0.0000000   0.0000000   0.0000000  )
         2           Si  tau(   2) = (   0.2500000   0.2500000   0.2500000  )

     number of k points=    16
                       cart. coord. in units 2pi/alat
        k(    1) = (   0.0000000   0.0000000   0.0000000), wk =   0.0092593
        k(    2) = (  -0.1666667   0.1666667  -0.1666667), wk =   0.0740741
        k(    3) = (  -0.3333333   0.3333333  -0.3333333), wk =   0.0740741
        k(    4) = (   0.5000000  -0.5000000   0.5000000), wk =   0.0370370
        k(    5) = (   0.0000000   0.3333333   0.0000000), wk =   0.0555556
        k(    6) = (  -0.1666667   0.5000000  -0.1666667), wk =   0.2222222
        k(    7) = (   0.6666667  -0.3333333   0.6666667), wk =   0.2222222
        k(    8) = (   0.5000000  -0.1666667   0.5000000), wk =   0.2222222
        k(    9) = (   0.3333333   0.0000000   0.3333333), wk =   0.1111111
        k(   10) = (   0.0000000   0.6666667   0.0000000), wk =   0.0555556
        k(   11) = (   0.8333333  -0.1666667   0.8333333), wk =   0.2222222
        k(   12) = (   0.6666667  -0.0000000   0.6666667), wk =   0.1111111
        k(   13) = (   0.0000000  -1.0000000   0.0000000), wk =   0.0277778
        k(   14) = (   0.6666667  -0.3333333   1.0000000), wk =   0.2222222
        k(   15) = (   0.5000000  -0.1666667   0.8333333), wk =   0.2222222
        k(   16) = (  -0.3333333  -1.0000000   0.0000000), wk =   0.1111111

     Dense  grid:     6615 G-vectors     FFT dimensions: (  32,  32,  32)

     Estimated max dynamical RAM per process >       1.97 MB

     Estimated total dynamical RAM >      92.01 MB

     Check: negative core charge=   -0.000002

     Initial potential from superposition of free atoms

     starting charge       7.9989, renormalised to       8.0000
     Starting wfcs are    8 randomized atomic wfcs
     Checking if some PAW data can be deallocated... 

     total cpu time spent up to now is        0.4 secs

     Self-consistent Calculation

     iteration #  1     ecut=    32.00 Ry     beta= 0.60
     Davidson diagonalization with overlap
     ethr =  1.00E-02,  avg # of iterations =  3.5

     Threshold (ethr) on eigenvalues was too large:
     Diagonalizing with lowered threshold

     Davidson diagonalization with overlap
     ethr =  6.58E-04,  avg # of iterations =  2.4

     total cpu time spent up to now is        0.6 secs

     total energy              =     -93.44964520 Ry
     estimated scf accuracy    <       0.05678209 Ry

     iteration #  2     ecut=    32.00 Ry     beta= 0.60
     Davidson diagonalization with overlap
     ethr =  7.10E-04,  avg # of iterations =  1.1

     total cpu time spent up to now is        0.7 secs

     total energy              =     -93.45098143 Ry
     estimated scf accuracy    <       0.00526899 Ry

     iteration #  3     ecut=    32.00 Ry     beta= 0.60
     Davidson diagonalization with overlap
     ethr =  6.59E-05,  avg # of iterations =  2.9

     total cpu time spent up to now is        0.8 secs

     total energy              =     -93.45126250 Ry
     estimated scf accuracy    <       0.00009488 Ry

     iteration #  4     ecut=    32.00 Ry     beta= 0.60
     Davidson diagonalization with overlap
     ethr =  1.19E-06,  avg # of iterations =  5.0

     total cpu time spent up to now is        0.9 secs

     End of self-consistent calculation

          k = 0.0000 0.0000 0.0000 (   869 PWs)   bands (ev):

    -5.7509   6.2192   6.2192   6.2192   8.7787   8.7787   8.7787   9.5876

          k =-0.1667 0.1667-0.1667 (   830 PWs)   bands (ev):

    -5.3895   3.8353   5.7677   5.7677   8.5691   9.4275   9.4275  11.6763

          k =-0.3333 0.3333-0.3333 (   823 PWs)   bands (ev):

    -4.3733   0.8790   5.2169   5.2169   7.9812   9.7232   9.7233  14.0907

          k = 0.5000-0.5000 0.5000 (   832 PWs)   bands (ev):

    -3.4175  -0.7583   5.0184   5.0184   7.7557   9.5557   9.5557  13.9492

          k = 0.0000 0.3333 0.0000 (   837 PWs)   bands (ev):

    -5.2666   4.1800   5.0235   5.0235   7.9202  10.5204  10.5643  10.5643

          k =-0.1667 0.5000-0.1667 (   832 PWs)   bands (ev):

    -4.4507   1.7787   4.2230   4.4697   8.1813  10.2849  10.7434  11.2944

          k = 0.6667-0.3333 0.6667 (   824 PWs)   bands (ev):

    -3.2582  -0.3932   3.4382   4.4397   8.2581  10.3356  10.8397  12.6417

          k = 0.5000-0.1667 0.5000 (   826 PWs)   bands (ev):

    -3.6436   0.2068   3.1670   4.9195   8.6689  10.3426  10.4467  13.5152

          k = 0.3333 0.0000 0.3333 (   829 PWs)   bands (ev):

    -4.8009   2.4985   3.8021   5.6532   9.2582   9.7750  10.0681  11.8861

          k = 0.0000 0.6667 0.0000 (   829 PWs)   bands (ev):

    -3.8455   1.2046   3.7973   3.7973   6.9419   8.2074  13.4850  13.4850

          k = 0.8333-0.1667 0.8333 (   816 PWs)   bands (ev):

    -2.6807  -0.3513   2.5811   3.6607   7.2782   8.9345  13.6712  13.7034

          k = 0.6667-0.0000 0.6667 (   816 PWs)   bands (ev):

    -2.4842  -0.5568   1.7992   4.1037   7.7828  12.0222  12.6958  13.3000

          k = 0.0000-1.0000 0.0000 (   806 PWs)   bands (ev):

    -1.6038  -1.6038   3.3623   3.3623   6.9245   6.9245  16.3279  16.3279

          k = 0.6667-0.3333 1.0000 (   822 PWs)   bands (ev):

    -3.4600   0.5709   2.6437   3.9201   9.0709   9.9327  10.4542  13.2876

          k = 0.5000-0.1667 0.8333 (   826 PWs)   bands (ev):

    -2.4741  -0.6300   2.2033   3.4526   9.5734   9.7763  12.3216  12.7400

          k =-0.3333-1.0000 0.0000 (   820 PWs)   bands (ev):

    -1.4836  -1.4836   2.5682   2.5682   8.9663   8.9663  12.9847  12.9847

     highest occupied, lowest unoccupied level (ev):     6.2192    6.9245

!    total energy              =     -93.45128980 Ry
     total all-electron energy =     -1160.143020 Ry
     estimated scf accuracy    <       0.00000031 Ry

     The total energy is the sum of the following terms:
     one-electron contribution =       5.74402380 Ry
     hartree contribution      =       1.10387740 Ry
     xc contribution           =     -12.31137481 Ry
     ewald contribution        =     -16.80092962 Ry
     one-center paw contrib.   =     -71.18688658 Ry

     convergence has been achieved in   4 iterations


     Computing stress (Cartesian axis) and pressure

          total   stress  (Ry/bohr**3)                   (kbar)     P=       21.05
   0.00014310  -0.00000000   0.00000000           21.05       -0.00        0.00
   0.00000000   0.00014310   0.00000000            0.00       21.05        0.00
   0.00000000   0.00000000   0.00014310            0.00        0.00       21.05


     Writing all to output data dir ./pwscf.save/
 
     init_run     :      0.07s CPU      0.20s WALL (       1 calls)
     electrons    :      0.25s CPU      0.57s WALL (       1 calls)
     stress       :      0.01s CPU      0.02s WALL (       1 calls)

     Called by init_run:
     wfcinit      :      0.00s CPU      0.03s WALL (       1 calls)
     potinit      :      0.04s CPU      0.08s WALL (       1 calls)
     hinit0       :      0.02s CPU      0.06s WALL (       1 calls)

     Called by electrons:
     c_bands      :      0.08s CPU      0.10s WALL (       5 calls)
     sum_band     :      0.02s CPU      0.03s WALL (       5 calls)
     v_of_rho     :      0.01s CPU      0.01s WALL (       5 calls)
     newd         :      0.00s CPU      0.01s WALL (       5 calls)
     PAW_pot      :      0.17s CPU      0.34s WALL (       5 calls)
     mix_rho      :      0.00s CPU      0.00s WALL (       5 calls)

     Called by c_bands:
     init_us_2    :      0.00s CPU      0.00s WALL (      48 calls)
     init_us_2:cp :      0.00s CPU      0.00s WALL (      48 calls)
     cegterg      :      0.06s CPU      0.07s WALL (      20 calls)

     Called by *egterg:
     cdiaghg      :      0.01s CPU      0.02s WALL (      71 calls)
     h_psi        :      0.05s CPU      0.06s WALL (      79 calls)
     s_psi        :      0.00s CPU      0.00s WALL (      79 calls)
     g_psi        :      0.00s CPU      0.00s WALL (      55 calls)

     Called by h_psi:
     h_psi:calbec :      0.00s CPU      0.00s WALL (      79 calls)
     vloc_psi     :      0.05s CPU      0.05s WALL (      79 calls)
     add_vuspsi   :      0.00s CPU      0.00s WALL (      79 calls)

     General routines
     calbec       :      0.00s CPU      0.00s WALL (     103 calls)
     fft          :      0.00s CPU      0.01s WALL (      70 calls)
     ffts         :      0.00s CPU      0.00s WALL (       5 calls)
     fftw         :      0.05s CPU      0.06s WALL (    1086 calls)
 
     Parallel routines
 
     PWSCF        :      0.45s CPU      1.31s WALL

 
   This run was terminated on:  11:13:14  19Jun2023            

=------------------------------------------------------------------------------=
   JOB DONE.
=------------------------------------------------------------------------------=
